
                                 *****************
                                 * O   R   C   A *
                                 *****************

           --- An Ab Initio, DFT and Semiempirical electronic structure package ---

                  #######################################################
                  #                        -***-                        #
                  #  Department of molecular theory and spectroscopy    #
                  #              Directorship: Frank Neese              #
                  # Max Planck Institute for Chemical Energy Conversion #
                  #                  D-45470 Muelheim/Ruhr              #
                  #                       Germany                       #
                  #                                                     #
                  #                  All rights reserved                #
                  #                        -***-                        #
                  #######################################################


                         Program Version 4.0  -  CURRENT   -
                                (SVN: $$)
                ($ $)


 With contributions from (in alphabetic order):
   Ute Becker             : Parallelization
   Martin Brehm           : Molecular dynamics
   Dmytro Bykov           : SCF Hessian
   Dipayan Datta          : DLPNO lambda equations
   Achintya Kumar Dutta   : EOM-CC, STEOM-CC
   Dipayan Datta          : RHF DLPNO-CCSD density
   Dmitry Ganyushin       : Spin-Orbit,Spin-Spin,Magnetic field MRCI
   Yang Guo               : DLPNO-NEVPT2, CIM, IAO-localization
   Andreas Hansen         : Spin unrestricted coupled pair/coupled cluster methods
   Lee Huntington         : MR-EOM, pCC
   Robert Izsak           : Overlap fitted RIJCOSX, COSX-SCS-MP3, EOM
   Christian Kollmar      : KDIIS, OOCD, Brueckner-CCSD(T), CCSD density
   Simone Kossmann        : Meta GGA functionals, TD-DFT gradient, OOMP2, MP2 Hessian
   Martin Krupicka        : AUTO-CI
   Dagmar Lenk            : GEPOL surface
   Dimitrios Liakos       : Extrapolation schemes; parallel MDCI
   Dimitrios Manganas     : ROCIS; embedding schemes
   Taras Petrenko         : DFT Hessian,TD-DFT gradient, ASA, ECA, R-Raman, ABS, FL, XAS/XES, NRVS
   Peter Pinski           : DLPNO-MP2
   Christoph Reimann      : Effective Core Potentials
   Christoph Riplinger    : Improved optimizer, TS searches, QM/MM, DLPNO-CCSD
   Tobias Risthaus        : Range-separated hybrids, TD-DFT gradient, RPA, STAB
   Michael Roemelt        : Restricted open shell CIS
   Masaaki Saitow         : Open-shell DLPNO
   Barbara Sandhoefer     : DKH picture change effects
   Kantharuban Sivalingam : CASSCF convergence, NEVPT2, FIC-MRCI
   Georgi Stoychev        : AutoAux
   Boris Wezisla          : Elementary symmetry handling
   Frank Wennmohs         : Technical directorship


 We gratefully acknowledge several colleagues who have allowed us to
 interface, adapt or use parts of their codes:
   Stefan Grimme, W. Hujo, H. Kruse,             : VdW corrections, initial TS optimization,
                  C. Bannwarth                     DFT functionals, gCP, sTDA/sTD-DF
   Ed Valeev                                     : LibInt (2-el integral package), F12 methods
   Garnet Chan, S. Sharma, J. Yang, R. Olivares  : DMRG
   Ulf Ekstrom                                   : XCFun DFT Library
   Mihaly Kallay                                 : mrcc  (arbitrary order and MRCC methods)
   Andreas Klamt, Michael Diedenhofen            : otool_cosmo (COSMO solvation model)
   Jiri Pittner, Ondrej Demel                    : Mk-CCSD
   Frank Weinhold                                : gennbo (NPA and NBO analysis)
   Christopher J. Cramer and Donald G. Truhlar   : smd solvation model


 Your calculation uses the libint2 library for the computation of 2-el integrals
 For citations please refer to: http://libint.valeyev.net

 This ORCA versions uses:
   CBLAS   interface :  Fast vector & matrix operations
   LAPACKE interface :  Fast linear algebra routines


Basis set used: Æ
Auxilliary basis set used Æ
Your calculation utilizes the basis: 6-31G
Cite in your paper:
H - He: W.J. Hehre, R. Ditchfield and J.A. Pople, J. Chem. Phys. 56,
Li - Ne: 2257 (1972).  Note: Li and B come from J.D. Dill and J.A.
         Pople, J. Chem. Phys. 62, 2921 (1975).
Na - Ar: M.M. Francl, W.J. Pietro, W.J. Hehre, J.S. Binkley, M.S. Gordon,
         D.J. DeFrees and J.A. Pople, J. Chem. Phys. 77, 3654 (1982)
K  - Zn: V. Rassolov, J.A. Pople, M. Ratner and T.L. Windus, J. Chem. Phys.
         (accepted, 1998)
Note: He and Ne are unpublished basis sets taken from the Gaussian program


INFORMATION: RI flags are NOT operative but an aux basis will still be built

SCAN-COORDS
================================================================================
                                        BASIS SETS
                                  Additional info on basis sets
================================================================================

Now building the actual basis set ...



                    <<< The aux-basis set will be decontracted >>>

================================================================================
                                        WARNINGS
                       Please study these warnings very carefully!
================================================================================


WARNING: PNO calculations with unrestricted orbitals require UNOs
  ===> : Switching on UNOs

WARNING: Post HF methods need fully converged wavefunctions
  ===> : Setting SCFConvForced true
         You can overwrite this default with %scf ConvForced false 


INFO   : the flag for use of LIBINT has been found!

================================================================================
                                       INPUT FILE
================================================================================
NAME = job.inp
|  1> #! uhf cc-pvtz cc-pv6z/JK lpno-ccsd largeprint DecontractAux
|  2> ! uhf lpno-ccsd  DecontractAux
|  3> 
|  4> #! uhf 3-21g ccsd largeprint
|  5> 
|  6> #%method method hf
|  7> #end
|  8> 
|  9> #%basis basis ccpvdz
| 10> #  end
| 11> 
| 12> #%method frozencore
| 13> #FC_NONE
| 14> #end
| 15> 
| 16> %MaxCore 6000
| 17> %basis 
| 18> Basis "6-31g" 
| 19> Auxbasis "cc-pv6z/JK"
| 20> end
| 21> %scf
| 22> Convergence Tight
| 23> end
| 24> 
| 25> #%output
| 26> #Print[P_overlap] 1
| 27> #Print[P_AtomBasis] 1
| 28> #Print[P_Basis] 1
| 29> #Print[P_Mos] 1
| 30> #end
| 31> 
| 32> %mdci
| 33> #printlevel 1
| 34> mrcc on
| 35> mrcctype mkcc
| 36> root -1
| 37> root_overlap "-0.6,0.8"
| 38> #MaxDIIS 0
| 39> #refs "22220,22202"
| 40> refs "22222222222222222222202,22222222222222222222220"
| 41> #refs "22202"
| 42> #refs "22220"
| 43> STol 1e-7
| 44> #userhfints false
| 45> useqros true
| 46> tcutpno .00000000464194510239
| 47> #tcutpairs 0
| 48> #tcutmkn 0 
| 49> #PNOSigmaOpt 3 
| 50> #DoAccJKDress 1
| 51> end
| 52> 
| 53> %coords
| 54> Ctyp internal
| 55> Charge 0
| 56> Mult 1
| 57> Units Angs
| 58> 
| 59> pardef
| 60>    twist [0.0 10. 20. 30. 40. 50. 60. 70. 80. 90.];
| 61> #   full [180];
| 62>    c1c2 [1.4993624219];
| 63>    c1c3 [1.3977615270];
| 64> #   c3c1c2 [118.8806746055];
| 65> #   h1c3 [1.0929706704];
| 66> #   h1c3c1 [120.3530086544];
| 67> #   alpha [0.7233619508];
| 68> #   h5c3 [1.0906057672];
| 69> #   h5c3c1 [121.0883576824];
| 70> #   beta [2.3358631058];
| 71> end
| 72> coords
| 73>  C 0 0 0  0 0 0  
| 74>  C 1 0 0  {c1c2} 0 0  
| 75>  C 1 2 0  {c1c3} 118.8806746055 0
| 76>  C 1 2 3  {c1c3} 118.8806746055 180
| 77>  C 2 1 3  {c1c3} 118.8806746055 {twist}
| 78>  C 2 1 4  {c1c3} 118.8806746055 {twist}
| 79>  H 3 1 4  1.0929706704 120.3530086544 0.7233619508
| 80>  H 4 1 3  1.0929706704 120.3530086544 0.7233619508
| 81>  H 5 2 6  1.0929706704 120.3530086544 0.7233619508
| 82>  H 6 2 5  1.0929706704 120.3530086544 0.7233619508
| 83>  H 3 1 2  1.0906057672 121.0883576824 2.3358631058
| 84>  H 4 1 2  1.0906057672 121.0883576824 2.3358631058  
| 85>  H 5 2 1  1.0906057672 121.0883576824 2.3358631058
| 86>  H 6 2 1  1.0906057672 121.0883576824 2.3358631058
| 87>  end
| 88> end
| 89> 
| 90>                          ****END OF INPUT****
================================================================================

                       ******************************
                       * Parameter Scan Calculation *
                       ******************************

Trajectory settings:
    -> SCF surface will be mapped
    -> MDCI surface will be mapped

There are 3 parameter(s) to be scanned
         TWIST: user defined at 10 points
          C1C2: user defined at 1 points
          C1C3: user defined at 1 points
There will be   10 energy evaluations


         *************************************************************
                                TRAJECTORY STEP   1
              TWIST  :   0.00000000
                C1C2  :   1.49936242
                C1C3  :   1.39776153
         *************************************************************
---------------------------------
CARTESIAN COORDINATES (ANGSTROEM)
---------------------------------
  C      0.000000    0.000000    0.000000
  C      1.499362    0.000000    0.000000
  C     -0.675101    1.223918    0.000000
  C     -0.675101   -1.223918   -0.000000
  C      2.174463    1.223918    0.000000
  C      2.174463   -1.223918   -0.000000
  H     -1.767645    1.252038    0.011907
  H     -1.767645   -1.252038   -0.011907
  H      3.267007    1.252038   -0.011907
  H      3.267007   -1.252038    0.011907
  H     -0.129967    2.167741   -0.038066
  H     -0.129967   -2.167741    0.038066
  H      1.629329    2.167741    0.038066
  H      1.629329   -2.167741   -0.038066

----------------------------
CARTESIAN COORDINATES (A.U.)
----------------------------
  NO LB      ZA    FRAG      MASS         X                   Y                   Z
   0 C     6.0000    0    12.011          0.000000000000000          0.000000000000000          0.000000000000000
   1 C     6.0000    0    12.011          2.833384352883892          0.000000000000000          0.000000000000000
   2 C     6.0000    0    12.011         -1.275755516702058          2.312870604464150          0.000000000000000
   3 C     6.0000    0    12.011         -1.275755516702058         -2.312870604464150         -0.000000000000000
   4 C     6.0000    0    12.011          4.109139869585950          2.312870604464150          0.000000000000000
   5 C     6.0000    0    12.011          4.109139869585950         -2.312870604464150         -0.000000000000000
   6 H     1.0000    0     1.008         -3.340364481156446          2.366008501270029          0.022501093952121
   7 H     1.0000    0     1.008         -3.340364481156446         -2.366008501270029         -0.022501093952122
   8 H     1.0000    0     1.008          6.173748834040338          2.366008501270029         -0.022501093952121
   9 H     1.0000    0     1.008          6.173748834040338         -2.366008501270029          0.022501093952121
  10 H     1.0000    0     1.008         -0.245602002802750          4.096436856298667         -0.071933894601942
  11 H     1.0000    0     1.008         -0.245602002802750         -4.096436856298667          0.071933894601941
  12 H     1.0000    0     1.008          3.078986355686642          4.096436856298667          0.071933894601942
  13 H     1.0000    0     1.008          3.078986355686642         -4.096436856298667         -0.071933894601942

--------------------------------
INTERNAL COORDINATES (ANGSTROEM)
--------------------------------
 C      0   0   0     0.000000000000     0.00000000     0.00000000
 C      1   0   0     1.499362421900     0.00000000     0.00000000
 C      1   2   0     1.397761527000   118.88067461     0.00000000
 C      1   2   3     1.397761527000   118.88067461   180.00000000
 C      2   1   3     1.397761527000   118.88067461     0.00000000
 C      2   1   4     1.397761527000   118.88067461     0.00000000
 H      3   1   4     1.092970670400   120.35300865     0.72336195
 H      4   1   3     1.092970670400   120.35300865     0.72336195
 H      5   2   6     1.092970670400   120.35300865     0.72336195
 H      6   2   5     1.092970670400   120.35300865     0.72336195
 H      3   1   2     1.090605767200   121.08835768     2.33586311
 H      4   1   2     1.090605767200   121.08835768     2.33586311
 H      5   2   1     1.090605767200   121.08835768     2.33586311
 H      6   2   1     1.090605767200   121.08835768     2.33586311

---------------------------
INTERNAL COORDINATES (A.U.)
---------------------------
 C      0   0   0     0.000000000000     0.00000000     0.00000000
 C      1   0   0     2.833384352884     0.00000000     0.00000000
 C      1   2   0     2.641386486562   118.88067461     0.00000000
 C      1   2   3     2.641386486562   118.88067461   180.00000000
 C      2   1   3     2.641386486562   118.88067461     0.00000000
 C      2   1   4     2.641386486562   118.88067461     0.00000000
 H      3   1   4     2.065415239464   120.35300865     0.72336195
 H      4   1   3     2.065415239464   120.35300865     0.72336195
 H      5   2   6     2.065415239464   120.35300865     0.72336195
 H      6   2   5     2.065415239464   120.35300865     0.72336195
 H      3   1   2     2.060946220083   121.08835768     2.33586311
 H      4   1   2     2.060946220083   121.08835768     2.33586311
 H      5   2   1     2.060946220083   121.08835768     2.33586311
 H      6   2   1     2.060946220083   121.08835768     2.33586311

---------------------
BASIS SET INFORMATION
---------------------
There are 2 groups of distinct atoms

 Group   1 Type C   : 10s4p contracted to 3s2p pattern {631/31}
 Group   2 Type H   : 4s contracted to 2s pattern {31}

Atom   0C    basis set group =>   1
Atom   1C    basis set group =>   1
Atom   2C    basis set group =>   1
Atom   3C    basis set group =>   1
Atom   4C    basis set group =>   1
Atom   5C    basis set group =>   1
Atom   6H    basis set group =>   2
Atom   7H    basis set group =>   2
Atom   8H    basis set group =>   2
Atom   9H    basis set group =>   2
Atom  10H    basis set group =>   2
Atom  11H    basis set group =>   2
Atom  12H    basis set group =>   2
Atom  13H    basis set group =>   2

INFORMATION: There is an auxiliary basis set but the global RI flag is NOT set

-------------------------------
AUXILIARY BASIS SET INFORMATION
-------------------------------
There are 2 groups of distinct atoms

 Group   1 Type C   : 10s7p5d4f3g2h1i contracted to 10s7p5d4f3g2h1i pattern {1111111111/1111111/11111/1111/111/11/1}
 Group   2 Type H   : 4s3p4d3f2g1h contracted to 4s3p4d3f2g1h pattern {1111/111/1111/111/11/1}

Atom   0C    basis set group =>   1
Atom   1C    basis set group =>   1
Atom   2C    basis set group =>   1
Atom   3C    basis set group =>   1
Atom   4C    basis set group =>   1
Atom   5C    basis set group =>   1
Atom   6H    basis set group =>   2
Atom   7H    basis set group =>   2
Atom   8H    basis set group =>   2
Atom   9H    basis set group =>   2
Atom  10H    basis set group =>   2
Atom  11H    basis set group =>   2
Atom  12H    basis set group =>   2
Atom  13H    basis set group =>   2
------------------------------------------------------------------------------
                           ORCA GTO INTEGRAL CALCULATION
------------------------------------------------------------------------------

                         BASIS SET STATISTICS AND STARTUP INFO

 # of primitive gaussian shells          ...  116
 # of primitive gaussian functions       ...  164
 # of contracted shell                   ...   46
 # of contracted basis functions         ...   70
 Highest angular momentum                ...    1
 Maximum contraction depth               ...    6
 Integral package used                   ... LIBINT
 Integral threshhold            Thresh   ...  2.500e-11
 Primitive cut-off              TCut     ...  2.500e-12


------------------------------ INTEGRAL EVALUATION ----------------------------


 * One electron integrals 
 Pre-screening matrix                    ... done
 Shell pair data                         ... done (   0.003 sec)

-------------------------------------------------------------------------------
                                 ORCA SCF
-------------------------------------------------------------------------------

------------
SCF SETTINGS
------------
Hamiltonian:
 Ab initio Hamiltonian  Method          .... Hartree-Fock(GTOs)


General Settings:
 Integral files         IntName         .... job
 Hartree-Fock type      HFTyp           .... UHF
 Total Charge           Charge          ....    0
 Multiplicity           Mult            ....    1
 Number of Electrons    NEL             ....   44
 Basis Dimension        Dim             ....   70
 Nuclear Repulsion      ENuc            ....    207.2827307447 Eh

Convergence Acceleration:
 DIIS                   CNVDIIS         .... on
   Start iteration      DIISMaxIt       ....    12
   Startup error        DIISStart       ....  0.200000
   # of expansion vecs  DIISMaxEq       ....     5
   Bias factor          DIISBfac        ....   1.050
   Max. coefficient     DIISMaxC        ....  10.000
 Newton-Raphson         CNVNR           .... off
 SOSCF                  CNVSOSCF        .... off
 Level Shifting         CNVShift        .... on
   Level shift para.    LevelShift      ....    0.2500
   Turn off err/grad.   ShiftErr        ....    0.0010
 Zerner damping         CNVZerner       .... off
 Static damping         CNVDamp         .... on
   Fraction old density DampFac         ....    0.7000
   Max. Damping (<1)    DampMax         ....    0.9800
   Min. Damping (>=0)   DampMin         ....    0.0000
   Turn off err/grad.   DampErr         ....    0.1000
 Fernandez-Rico         CNVRico         .... off

SCF Procedure:
 Maximum # iterations   MaxIter         ....   125
 SCF integral mode      SCFMode         .... Direct
   Integral package                     .... LIBINT
 Reset frequeny         DirectResetFreq ....    20
 Integral Threshold     Thresh          ....  2.500e-11 Eh
 Primitive CutOff       TCut            ....  2.500e-12 Eh

Convergence Tolerance:
 Convergence Check Mode ConvCheckMode   .... Total+1el-Energy
 Convergence forced     ConvForced      .... 1
 Energy Change          TolE            ....  1.000e-08 Eh
 1-El. energy change                    ....  1.000e-05 Eh
 DIIS Error             TolErr          ....  5.000e-07


Diagonalization of the overlap matrix:
Smallest eigenvalue                        ... 2.107e-03
Time for diagonalization                   ...    0.005 sec
Threshold for overlap eigenvalues          ... 1.000e-08
Number of eigenvalues below threshold      ... 0
Time for construction of square roots      ...    0.001 sec
Total time needed                          ...    0.005 sec

-------------------
DFT GRID GENERATION
-------------------

General Integration Accuracy     IntAcc      ...  4.340
Radial Grid Type                 RadialGrid  ... Gauss-Chebyshev
Angular Grid (max. acc.)         AngularGrid ... Lebedev-110
Angular grid pruning method      GridPruning ... 3 (G Style)
Weight generation scheme         WeightScheme... Becke
Basis function cutoff            BFCut       ...    1.0000e-11
Integration weight cutoff        WCut        ...    1.0000e-14
Grids for H and He will be reduced by one unit

# of grid points (after initial pruning)     ...  16288 (   0.0 sec)
# of grid points (after weights+screening)   ...  15128 (   0.2 sec)
nearest neighbour list constructed           ...    0.0 sec
Grid point re-assignment to atoms done       ...    0.0 sec
Grid point division into batches done        ...    0.1 sec
Reduced shell lists constructed in    0.5 sec

Total number of grid points                  ...    15128
Total number of batches                      ...      248
Average number of points per batch           ...       61
Average number of grid points per atom       ...     1081
Average number of shells per batch           ...    35.81 (77.85%)
Average number of basis functions per batch  ...    57.62 (82.31%)
Average number of large shells per batch     ...    29.71 (82.98%)
Average number of large basis fcns per batch ...    48.90 (84.87%)
Maximum spatial batch extension              ...  18.13, 20.22, 22.36 au
Average spatial batch extension              ...   3.46,  4.07,  5.33 au

Time for grid setup =    0.691 sec

------------------------------
INITIAL GUESS: MODEL POTENTIAL
------------------------------
Loading Hartree-Fock densities                     ... done
Calculating cut-offs                               ... done
Setting up the integral package                    ... done
Initializing the effective Hamiltonian             ... done
Starting the Coulomb interaction                   ... done (   0.1 sec)
Reading the grid                                   ... done
Mapping shells                                     ... done
Starting the XC term evaluation                    ... done (   0.2 sec)
Transforming the Hamiltonian                       ... done (   0.0 sec)
Diagonalizing the Hamiltonian                      ... done (   0.0 sec)
Back transforming the eigenvectors                 ... done (   0.0 sec)
Now organizing SCF variables                       ... done
                      ------------------
                      INITIAL GUESS DONE (   1.3 sec)
                      ------------------
--------------
SCF ITERATIONS
--------------
ITER       Energy         Delta-E        Max-DP      RMS-DP      [F,P]     Damp
               ***  Starting incremental Fock matrix formation  ***
  0   -231.3333718876   0.000000000000 0.02016934  0.00195975  0.1389305 0.7000
  1   -231.4088662853  -0.075494397728 0.01570096  0.00157100  0.0930053 0.7000
                               ***Turning on DIIS***
  2   -231.4564563945  -0.047590109183 0.03585284  0.00368481  0.0587919 0.0000
  3   -231.1856130533   0.270843341205 0.00890154  0.00096199  0.0198829 0.0000
  4   -231.5061450138  -0.320531960509 0.00236316  0.00030055  0.0032583 0.0000
  5   -231.5455210473  -0.039376033452 0.00092425  0.00010409  0.0014744 0.0000
  6   -231.5521817799  -0.006660732624 0.00058233  0.00004590  0.0007156 0.0000
  7   -231.5531770468  -0.000995266908 0.00007958  0.00000496  0.0001040 0.0000
  8   -231.5534976247  -0.000320577927 0.00001591  0.00000145  0.0000205 0.0000
  9   -231.5534323523   0.000065272454 0.00000203  0.00000022  0.0000026 0.0000
                            ***DIIS convergence achieved***

               *****************************************************
               *                     SUCCESS                       *
               *           SCF CONVERGED AFTER  10 CYCLES          *
               *****************************************************


----------------
TOTAL SCF ENERGY
----------------

Total Energy       :         -231.55343492 Eh           -6300.88930 eV

Components:
Nuclear Repulsion  :          207.28273074 Eh            5640.44986 eV
Electronic Energy  :         -438.83616567 Eh          -11941.33915 eV
One Electron Energy:         -721.55718947 Eh          -19634.56933 eV
Two Electron Energy:          282.72102380 Eh            7693.23017 eV

Virial components:
Potential Energy   :         -462.96078239 Eh          -12597.80335 eV
Kinetic Energy     :          231.40734747 Eh            6296.91405 eV
Virial Ratio       :            2.00063130


---------------
SCF CONVERGENCE
---------------

  Last Energy change         ...   -2.5687e-06  Tolerance :   1.0000e-08
  Last MAX-Density change    ...    9.3775e-07  Tolerance :   1.0000e-07
  Last RMS-Density change    ...    8.2139e-08  Tolerance :   5.0000e-09
  Last DIIS Error            ...    7.4633e-07  Tolerance :   5.0000e-07

             **** THE GBW FILE WAS UPDATED (job.gbw) ****
             **** DENSITY FILE WAS UPDATED (job.scfp.tmp) ****
             **** ENERGY FILE WAS UPDATED (job.en.tmp) ****
----------------------
UHF SPIN CONTAMINATION
----------------------

Expectation value of <S**2>     :    -0.000000
Ideal value S*(S+1) for S=0.0   :     0.000000
Deviation                       :    -0.000000

----------------
ORBITAL ENERGIES
----------------
                 SPIN UP ORBITALS
  NO   OCC          E(Eh)            E(eV) 
   0   1.0000     -11.260736      -306.4202 
   1   1.0000     -11.260095      -306.4028 
   2   1.0000     -11.249582      -306.1167 
   3   1.0000     -11.249579      -306.1166 
   4   1.0000     -11.249508      -306.1147 
   5   1.0000     -11.249505      -306.1146 
   6   1.0000      -1.129731       -30.7415 
   7   1.0000      -1.028457       -27.9857 
   8   1.0000      -0.946008       -25.7422 
   9   1.0000      -0.888394       -24.1744 
  10   1.0000      -0.802569       -21.8390 
  11   1.0000      -0.690554       -18.7909 
  12   1.0000      -0.684647       -18.6302 
  13   1.0000      -0.633463       -17.2374 
  14   1.0000      -0.571595       -15.5539 
  15   1.0000      -0.568488       -15.4694 
  16   1.0000      -0.566353       -15.4113 
  17   1.0000      -0.509506       -13.8644 
  18   1.0000      -0.495957       -13.4957 
  19   1.0000      -0.477521       -12.9940 
  20   1.0000      -0.349855        -9.5200 
  21   1.0000      -0.195466        -5.3189 
  22   0.0000      -0.013709        -0.3730 
  23   0.0000       0.154176         4.1953 
  24   0.0000       0.233898         6.3647 
  25   0.0000       0.273948         7.4545 
  26   0.0000       0.278780         7.5860 
  27   0.0000       0.284685         7.7467 
  28   0.0000       0.313810         8.5392 
  29   0.0000       0.317588         8.6420 
  30   0.0000       0.347126         9.4458 
  31   0.0000       0.369940        10.0666 
  32   0.0000       0.441411        12.0114 
  33   0.0000       0.441644        12.0177 
  34   0.0000       0.462675        12.5900 
  35   0.0000       0.500128        13.6092 
  36   0.0000       0.603688        16.4272 
  37   0.0000       0.642262        17.4768 
  38   0.0000       0.728634        19.8271 
  39   0.0000       0.746523        20.3139 
  40   0.0000       0.760817        20.7029 
  41   0.0000       0.810331        22.0502 
  42   0.0000       0.814846        22.1731 
  43   0.0000       0.814858        22.1734 
  44   0.0000       0.819698        22.3051 
  45   0.0000       0.899178        24.4679 
  46   0.0000       0.900563        24.5056 
  47   0.0000       0.906523        24.6678 
  48   0.0000       0.909305        24.7435 
  49   0.0000       0.931875        25.3576 
  50   0.0000       0.962335        26.1865 
  51   0.0000       1.019147        27.7324 
  52   0.0000       1.117355        30.4048 
  53   0.0000       1.119093        30.4521 
  54   0.0000       1.119720        30.4691 
  55   0.0000       1.191849        32.4319 
  56   0.0000       1.246518        33.9195 
  57   0.0000       1.249045        33.9882 
  58   0.0000       1.256955        34.2035 
  59   0.0000       1.275857        34.7178 
  60   0.0000       1.291106        35.1328 
  61   0.0000       1.303241        35.4630 
  62   0.0000       1.327921        36.1346 
  63   0.0000       1.346096        36.6291 
  64   0.0000       1.456934        39.6452 
  65   0.0000       1.542816        41.9822 
  66   0.0000       1.545251        42.0484 
  67   0.0000       1.663026        45.2532 
  68   0.0000       1.783995        48.5450 
  69   0.0000       1.841478        50.1092 

                 SPIN DOWN ORBITALS
  NO   OCC          E(Eh)            E(eV) 
   0   1.0000     -11.260736      -306.4202 
   1   1.0000     -11.260095      -306.4028 
   2   1.0000     -11.249582      -306.1167 
   3   1.0000     -11.249579      -306.1166 
   4   1.0000     -11.249508      -306.1147 
   5   1.0000     -11.249505      -306.1146 
   6   1.0000      -1.129731       -30.7415 
   7   1.0000      -1.028457       -27.9857 
   8   1.0000      -0.946008       -25.7422 
   9   1.0000      -0.888394       -24.1744 
  10   1.0000      -0.802569       -21.8390 
  11   1.0000      -0.690554       -18.7909 
  12   1.0000      -0.684647       -18.6302 
  13   1.0000      -0.633463       -17.2374 
  14   1.0000      -0.571595       -15.5539 
  15   1.0000      -0.568488       -15.4694 
  16   1.0000      -0.566353       -15.4113 
  17   1.0000      -0.509506       -13.8644 
  18   1.0000      -0.495957       -13.4957 
  19   1.0000      -0.477521       -12.9940 
  20   1.0000      -0.349855        -9.5200 
  21   1.0000      -0.195466        -5.3189 
  22   0.0000      -0.013709        -0.3730 
  23   0.0000       0.154176         4.1953 
  24   0.0000       0.233898         6.3647 
  25   0.0000       0.273948         7.4545 
  26   0.0000       0.278780         7.5860 
  27   0.0000       0.284685         7.7467 
  28   0.0000       0.313810         8.5392 
  29   0.0000       0.317588         8.6420 
  30   0.0000       0.347126         9.4458 
  31   0.0000       0.369940        10.0666 
  32   0.0000       0.441411        12.0114 
  33   0.0000       0.441644        12.0177 
  34   0.0000       0.462675        12.5900 
  35   0.0000       0.500128        13.6092 
  36   0.0000       0.603688        16.4272 
  37   0.0000       0.642262        17.4768 
  38   0.0000       0.728634        19.8271 
  39   0.0000       0.746523        20.3139 
  40   0.0000       0.760817        20.7029 
  41   0.0000       0.810331        22.0502 
  42   0.0000       0.814846        22.1731 
  43   0.0000       0.814858        22.1734 
  44   0.0000       0.819698        22.3051 
  45   0.0000       0.899178        24.4679 
  46   0.0000       0.900563        24.5056 
  47   0.0000       0.906523        24.6678 
  48   0.0000       0.909305        24.7435 
  49   0.0000       0.931875        25.3576 
  50   0.0000       0.962335        26.1865 
  51   0.0000       1.019147        27.7324 
  52   0.0000       1.117355        30.4048 
  53   0.0000       1.119093        30.4521 
  54   0.0000       1.119720        30.4691 
  55   0.0000       1.191849        32.4319 
  56   0.0000       1.246518        33.9195 
  57   0.0000       1.249045        33.9882 
  58   0.0000       1.256955        34.2035 
  59   0.0000       1.275857        34.7178 
  60   0.0000       1.291106        35.1328 
  61   0.0000       1.303241        35.4630 
  62   0.0000       1.327921        36.1346 
  63   0.0000       1.346096        36.6291 
  64   0.0000       1.456934        39.6452 
  65   0.0000       1.542816        41.9822 
  66   0.0000       1.545251        42.0484 
  67   0.0000       1.663026        45.2532 
  68   0.0000       1.783995        48.5450 
  69   0.0000       1.841478        50.1092 

                    ********************************
                    * MULLIKEN POPULATION ANALYSIS *
                    ********************************

--------------------------------------------
MULLIKEN ATOMIC CHARGES AND SPIN POPULATIONS
--------------------------------------------
   0 C :    0.056805    0.000000
   1 C :    0.056805    0.000000
   2 C :   -0.387998    0.000000
   3 C :   -0.387998    0.000000
   4 C :   -0.387998    0.000000
   5 C :   -0.387998    0.000000
   6 H :    0.180509    0.000000
   7 H :    0.180509    0.000000
   8 H :    0.180509    0.000000
   9 H :    0.180509    0.000000
  10 H :    0.179087    0.000000
  11 H :    0.179087    0.000000
  12 H :    0.179087    0.000000
  13 H :    0.179087    0.000000
Sum of atomic charges         :   -0.0000000
Sum of atomic spin populations:    0.0000000

-----------------------------------------------------
MULLIKEN REDUCED ORBITAL CHARGES AND SPIN POPULATIONS
-----------------------------------------------------
CHARGE
  0 C s       :     3.146734  s :     3.146734
      pz      :     0.976599  p :     2.796461
      px      :     0.899543
      py      :     0.920320
  1 C s       :     3.146734  s :     3.146734
      pz      :     0.976599  p :     2.796461
      px      :     0.899543
      py      :     0.920320
  2 C s       :     3.295231  s :     3.295231
      pz      :     1.011138  p :     3.092767
      px      :     1.089546
      py      :     0.992084
  3 C s       :     3.295231  s :     3.295231
      pz      :     1.011138  p :     3.092767
      px      :     1.089546
      py      :     0.992084
  4 C s       :     3.295231  s :     3.295231
      pz      :     1.011138  p :     3.092767
      px      :     1.089546
      py      :     0.992084
  5 C s       :     3.295231  s :     3.295231
      pz      :     1.011138  p :     3.092767
      px      :     1.089546
      py      :     0.992084
  6 H s       :     0.819491  s :     0.819491
  7 H s       :     0.819491  s :     0.819491
  8 H s       :     0.819491  s :     0.819491
  9 H s       :     0.819491  s :     0.819491
 10 H s       :     0.820913  s :     0.820913
 11 H s       :     0.820913  s :     0.820913
 12 H s       :     0.820913  s :     0.820913
 13 H s       :     0.820913  s :     0.820913

SPIN
  0 C s       :     0.000000  s :     0.000000
      pz      :     0.000000  p :     0.000000
      px      :     0.000000
      py      :     0.000000
  1 C s       :     0.000000  s :     0.000000
      pz      :     0.000000  p :     0.000000
      px      :     0.000000
      py      :     0.000000
  2 C s       :     0.000000  s :     0.000000
      pz      :     0.000000  p :     0.000000
      px      :     0.000000
      py      :     0.000000
  3 C s       :     0.000000  s :     0.000000
      pz      :     0.000000  p :     0.000000
      px      :     0.000000
      py      :     0.000000
  4 C s       :     0.000000  s :     0.000000
      pz      :     0.000000  p :     0.000000
      px      :     0.000000
      py      :     0.000000
  5 C s       :     0.000000  s :     0.000000
      pz      :     0.000000  p :     0.000000
      px      :     0.000000
      py      :     0.000000
  6 H s       :     0.000000  s :     0.000000
  7 H s       :     0.000000  s :     0.000000
  8 H s       :     0.000000  s :     0.000000
  9 H s       :     0.000000  s :     0.000000
 10 H s       :     0.000000  s :     0.000000
 11 H s       :     0.000000  s :     0.000000
 12 H s       :     0.000000  s :     0.000000
 13 H s       :     0.000000  s :     0.000000


                     *******************************
                     * LOEWDIN POPULATION ANALYSIS *
                     *******************************

-------------------------------------------
LOEWDIN ATOMIC CHARGES AND SPIN POPULATIONS
-------------------------------------------
   0 C :   -0.023932    0.000000
   1 C :   -0.023932    0.000000
   2 C :   -0.239278    0.000000
   3 C :   -0.239278    0.000000
   4 C :   -0.239278    0.000000
   5 C :   -0.239278    0.000000
   6 H :    0.124991    0.000000
   7 H :    0.124991    0.000000
   8 H :    0.124991    0.000000
   9 H :    0.124991    0.000000
  10 H :    0.126252    0.000000
  11 H :    0.126252    0.000000
  12 H :    0.126252    0.000000
  13 H :    0.126252    0.000000

----------------------------------------------------
LOEWDIN REDUCED ORBITAL CHARGES AND SPIN POPULATIONS
----------------------------------------------------
CHARGE
  0 C s       :     2.909686  s :     2.909686
      pz      :     0.960818  p :     3.114246
      px      :     1.057357
      py      :     1.096071
  1 C s       :     2.909686  s :     2.909686
      pz      :     0.960818  p :     3.114246
      px      :     1.057357
      py      :     1.096071
  2 C s       :     3.011832  s :     3.011832
      pz      :     1.019315  p :     3.227445
      px      :     1.113471
      py      :     1.094659
  3 C s       :     3.011832  s :     3.011832
      pz      :     1.019315  p :     3.227445
      px      :     1.113471
      py      :     1.094659
  4 C s       :     3.011832  s :     3.011832
      pz      :     1.019315  p :     3.227445
      px      :     1.113471
      py      :     1.094659
  5 C s       :     3.011832  s :     3.011832
      pz      :     1.019315  p :     3.227445
      px      :     1.113471
      py      :     1.094659
  6 H s       :     0.875009  s :     0.875009
  7 H s       :     0.875009  s :     0.875009
  8 H s       :     0.875009  s :     0.875009
  9 H s       :     0.875009  s :     0.875009
 10 H s       :     0.873748  s :     0.873748
 11 H s       :     0.873748  s :     0.873748
 12 H s       :     0.873748  s :     0.873748
 13 H s       :     0.873748  s :     0.873748

SPIN
  0 C s       :     0.000000  s :     0.000000
      pz      :     0.000000  p :     0.000000
      px      :     0.000000
      py      :     0.000000
  1 C s       :     0.000000  s :     0.000000
      pz      :     0.000000  p :     0.000000
      px      :     0.000000
      py      :     0.000000
  2 C s       :     0.000000  s :     0.000000
      pz      :     0.000000  p :     0.000000
      px      :     0.000000
      py      :     0.000000
  3 C s       :     0.000000  s :     0.000000
      pz      :     0.000000  p :     0.000000
      px      :     0.000000
      py      :     0.000000
  4 C s       :     0.000000  s :     0.000000
      pz      :     0.000000  p :     0.000000
      px      :     0.000000
      py      :     0.000000
  5 C s       :     0.000000  s :     0.000000
      pz      :     0.000000  p :     0.000000
      px      :     0.000000
      py      :     0.000000
  6 H s       :     0.000000  s :     0.000000
  7 H s       :     0.000000  s :     0.000000
  8 H s       :     0.000000  s :     0.000000
  9 H s       :     0.000000  s :     0.000000
 10 H s       :     0.000000  s :     0.000000
 11 H s       :     0.000000  s :     0.000000
 12 H s       :     0.000000  s :     0.000000
 13 H s       :     0.000000  s :     0.000000


                      *****************************
                      * MAYER POPULATION ANALYSIS *
                      *****************************

  NA   - Mulliken gross atomic population
  ZA   - Total nuclear charge
  QA   - Mulliken gross atomic charge
  VA   - Mayer's total valence
  BVA  - Mayer's bonded valence
  FA   - Mayer's free valence

  ATOM       NA         ZA         QA         VA         BVA        FA
  0 C      5.9432     6.0000     0.0568     3.7378     3.7378     0.0000
  1 C      5.9432     6.0000     0.0568     3.7378     3.7378    -0.0000
  2 C      6.3880     6.0000    -0.3880     3.8252     3.8252     0.0000
  3 C      6.3880     6.0000    -0.3880     3.8252     3.8252    -0.0000
  4 C      6.3880     6.0000    -0.3880     3.8252     3.8252    -0.0000
  5 C      6.3880     6.0000    -0.3880     3.8252     3.8252     0.0000
  6 H      0.8195     1.0000     0.1805     0.9416     0.9416     0.0000
  7 H      0.8195     1.0000     0.1805     0.9416     0.9416    -0.0000
  8 H      0.8195     1.0000     0.1805     0.9416     0.9416    -0.0000
  9 H      0.8195     1.0000     0.1805     0.9416     0.9416     0.0000
 10 H      0.8209     1.0000     0.1791     0.9388     0.9388     0.0000
 11 H      0.8209     1.0000     0.1791     0.9388     0.9388    -0.0000
 12 H      0.8209     1.0000     0.1791     0.9388     0.9388    -0.0000
 13 H      0.8209     1.0000     0.1791     0.9388     0.9388     0.0000

  Mayer bond orders larger than 0.1
B(  0-C ,  1-C ) :   1.0038 B(  0-C ,  2-C ) :   1.4217 B(  0-C ,  3-C ) :   1.4217 
B(  1-C ,  4-C ) :   1.4217 B(  1-C ,  5-C ) :   1.4217 B(  2-C ,  4-C ) :   0.1730 
B(  2-C ,  5-C ) :   0.3475 B(  2-C ,  6-H ) :   0.9587 B(  2-C , 10-H ) :   0.9545 
B(  3-C ,  4-C ) :   0.3475 B(  3-C ,  5-C ) :   0.1730 B(  3-C ,  7-H ) :   0.9587 
B(  3-C , 11-H ) :   0.9545 B(  4-C ,  8-H ) :   0.9587 B(  4-C , 12-H ) :   0.9545 
B(  5-C ,  9-H ) :   0.9587 B(  5-C , 13-H ) :   0.9545 


                ***UHF Natural Orbitals were saved in job.unso***


                ***UHF Natural Orbitals were saved in job.uno***

QR-MO GENERATION
 Dim     =   70
 Mult    =    1
 NEl     =   44
 N(DOMO) =   22
 N(SOMO) =    0
 N(VMO)  =   48


                ***Quasi-Restricted Orbitals were saved in job.qro***

Orbital Energies of Quasi-Restricted MO's
   0( 2) :   -11.260736 a.u.  -306.420 eV
   1( 2) :   -11.260095 a.u.  -306.403 eV
   2( 2) :   -11.249582 a.u.  -306.117 eV
   3( 2) :   -11.249579 a.u.  -306.117 eV
   4( 2) :   -11.249508 a.u.  -306.115 eV
   5( 2) :   -11.249505 a.u.  -306.115 eV
   6( 2) :    -1.129731 a.u.   -30.742 eV
   7( 2) :    -1.028457 a.u.   -27.986 eV
   8( 2) :    -0.946008 a.u.   -25.742 eV
   9( 2) :    -0.888394 a.u.   -24.174 eV
  10( 2) :    -0.802569 a.u.   -21.839 eV
  11( 2) :    -0.690555 a.u.   -18.791 eV
  12( 2) :    -0.684647 a.u.   -18.630 eV
  13( 2) :    -0.633463 a.u.   -17.237 eV
  14( 2) :    -0.571595 a.u.   -15.554 eV
  15( 2) :    -0.568488 a.u.   -15.469 eV
  16( 2) :    -0.566353 a.u.   -15.411 eV
  17( 2) :    -0.509506 a.u.   -13.864 eV
  18( 2) :    -0.495957 a.u.   -13.496 eV
  19( 2) :    -0.477521 a.u.   -12.994 eV
  20( 2) :    -0.349855 a.u.    -9.520 eV
  21( 2) :    -0.195466 a.u.    -5.319 eV
  22( 0) :    -0.013709 a.u.    -0.373 eV
  23( 0) :     0.154176 a.u.     4.195 eV
  24( 0) :     0.233898 a.u.     6.365 eV
  25( 0) :     0.273948 a.u.     7.455 eV
  26( 0) :     0.278780 a.u.     7.586 eV
  27( 0) :     0.284685 a.u.     7.747 eV
  28( 0) :     0.313810 a.u.     8.539 eV
  29( 0) :     0.317588 a.u.     8.642 eV
  30( 0) :     0.347126 a.u.     9.446 eV
  31( 0) :     0.369940 a.u.    10.067 eV
  32( 0) :     0.441411 a.u.    12.011 eV
  33( 0) :     0.441644 a.u.    12.018 eV
  34( 0) :     0.462675 a.u.    12.590 eV
  35( 0) :     0.500128 a.u.    13.609 eV
  36( 0) :     0.603688 a.u.    16.427 eV
  37( 0) :     0.642262 a.u.    17.477 eV
  38( 0) :     0.728634 a.u.    19.827 eV
  39( 0) :     0.746523 a.u.    20.314 eV
  40( 0) :     0.760817 a.u.    20.703 eV
  41( 0) :     0.810331 a.u.    22.050 eV
  42( 0) :     0.814846 a.u.    22.173 eV
  43( 0) :     0.814858 a.u.    22.173 eV
  44( 0) :     0.819698 a.u.    22.305 eV
  45( 0) :     0.899178 a.u.    24.468 eV
  46( 0) :     0.900562 a.u.    24.506 eV
  47( 0) :     0.906523 a.u.    24.668 eV
  48( 0) :     0.909305 a.u.    24.743 eV
  49( 0) :     0.931875 a.u.    25.358 eV
  50( 0) :     0.962335 a.u.    26.186 eV
  51( 0) :     1.019147 a.u.    27.732 eV
  52( 0) :     1.117355 a.u.    30.405 eV
  53( 0) :     1.119093 a.u.    30.452 eV
  54( 0) :     1.119720 a.u.    30.469 eV
  55( 0) :     1.191849 a.u.    32.432 eV
  56( 0) :     1.246518 a.u.    33.919 eV
  57( 0) :     1.249045 a.u.    33.988 eV
  58( 0) :     1.256955 a.u.    34.203 eV
  59( 0) :     1.275857 a.u.    34.718 eV
  60( 0) :     1.291106 a.u.    35.133 eV
  61( 0) :     1.303241 a.u.    35.463 eV
  62( 0) :     1.327921 a.u.    36.135 eV
  63( 0) :     1.346096 a.u.    36.629 eV
  64( 0) :     1.456934 a.u.    39.645 eV
  65( 0) :     1.542816 a.u.    41.982 eV
  66( 0) :     1.545251 a.u.    42.048 eV
  67( 0) :     1.663026 a.u.    45.253 eV
  68( 0) :     1.783995 a.u.    48.545 eV
  69( 0) :     1.841478 a.u.    50.109 eV
-------
TIMINGS
-------

Total SCF time: 0 days 0 hours 0 min 32 sec 

Total time                  ....      32.241 sec
Sum of individual times     ....      32.207 sec  ( 99.9%)

Fock matrix formation       ....      30.783 sec  ( 95.5%)
Diagonalization             ....       0.036 sec  (  0.1%)
Density matrix formation    ....       0.026 sec  (  0.1%)
Population analysis         ....       0.042 sec  (  0.1%)
Initial guess               ....       0.608 sec  (  1.9%)
Orbital Transformation      ....       0.000 sec  (  0.0%)
Orbital Orthonormalization  ....       0.000 sec  (  0.0%)
DIIS solution               ....       0.020 sec  (  0.1%)
Write input to file
Entering MDCI
Parse references
read LocalizeActive
read ImprovedWeights

Weighttype: 0
read ImprovedWeightsWeightType 0 mrtype 2 LocaalizeActive 0 ImprovedWeight 1
TEST 2 70 44 64 32
references 
22222222222222222222202iref  0  refs  22222222222222222222202 P 2
iref  1  refs  22222222222222222222220 P 2
2try82242
try82242
try82242
try82242
try82242
try82242
try82242
try82242
try82242
try82242
try82242
try82242
try82242
try82242
try82242
try82242
try82242
try82242
try82242
try82242
try82242
try82240
try82242
try8224 
case 0
2try82242
try82242
try82242
try82242
try82242
try82242
try82242
try82242
try82242
try82242
try82242
try82242
try82242
try82242
try82242
try82242
try82242
try82242
try82242
try82242
try82242
try82242
try82240
try8224 
case 0
IOCCA
                   0          1    
      0         1          1     
      1         1          1     
      2         1          1     
      3         1          1     
      4         1          1     
      5         1          1     
      6         1          1     
      7         1          1     
      8         1          1     
      9         1          1     
     10         1          1     
     11         1          1     
     12         1          1     
     13         1          1     
     14         1          1     
     15         1          1     
     16         1          1     
     17         1          1     
     18         1          1     
     19         1          1     
     20         1          1     
     21         0          1     
     22         1          0     
     23         0          0     
     24         0          0     
     25         0          0     
     26         0          0     
     27         0          0     
     28         0          0     
     29         0          0     
     30         0          0     
     31         0          0     
     32         0          0     
     33         0          0     
     34         0          0     
     35         0          0     
     36         0          0     
     37         0          0     
     38         0          0     
     39         0          0     
     40         0          0     
     41         0          0     
     42         0          0     
     43         0          0     
     44         0          0     
     45         0          0     
     46         0          0     
     47         0          0     
     48         0          0     
     49         0          0     
     50         0          0     
     51         0          0     
     52         0          0     
     53         0          0     
     54         0          0     
     55         0          0     
     56         0          0     
     57         0          0     
     58         0          0     
     59         0          0     
     60         0          0     
     61         0          0     
     62         0          0     
     63         0          0     
     64         0          0     
     65         0          0     
     66         0          0     
     67         0          0     
     68         0          0     
     69         0          0     
IOCCB
                   0          1    
      0         1          1     
      1         1          1     
      2         1          1     
      3         1          1     
      4         1          1     
      5         1          1     
      6         1          1     
      7         1          1     
      8         1          1     
      9         1          1     
     10         1          1     
     11         1          1     
     12         1          1     
     13         1          1     
     14         1          1     
     15         1          1     
     16         1          1     
     17         1          1     
     18         1          1     
     19         1          1     
     20         1          1     
     21         0          1     
     22         1          0     
     23         0          0     
     24         0          0     
     25         0          0     
     26         0          0     
     27         0          0     
     28         0          0     
     29         0          0     
     30         0          0     
     31         0          0     
     32         0          0     
     33         0          0     
     34         0          0     
     35         0          0     
     36         0          0     
     37         0          0     
     38         0          0     
     39         0          0     
     40         0          0     
     41         0          0     
     42         0          0     
     43         0          0     
     44         0          0     
     45         0          0     
     46         0          0     
     47         0          0     
     48         0          0     
     49         0          0     
     50         0          0     
     51         0          0     
     52         0          0     
     53         0          0     
     54         0          0     
     55         0          0     
     56         0          0     
     57         0          0     
     58         0          0     
     59         0          0     
     60         0          0     
     61         0          0     
     62         0          0     
     63         0          0     
     64         0          0     
     65         0          0     
     66         0          0     
     67         0          0     
     68         0          0     
     69         0          0     
Check weighttype 0
Check mrweight
	  0       0.500000
	  1       0.500000

IACT
                   0          1    
      0         0          0     
      1         0          0     
      2         0          0     
      3         0          0     
      4         0          0     
      5         0          0     
      6         0          0     
      7         0          0     
      8         0          0     
      9         0          0     
     10         0          0     
     11         0          0     
     12         0          0     
     13         0          0     
     14         0          0     
     15         0          0     
     16         0          0     
     17         0          0     
     18         0          0     
     19         0          0     
     20         0          0     
     21         1          1     
     22         1          1     
     23         0          0     
     24         0          0     
     25         0          0     
     26         0          0     
     27         0          0     
     28         0          0     
     29         0          0     
     30         0          0     
     31         0          0     
     32         0          0     
     33         0          0     
     34         0          0     
     35         0          0     
     36         0          0     
     37         0          0     
     38         0          0     
     39         0          0     
     40         0          0     
     41         0          0     
     42         0          0     
     43         0          0     
     44         0          0     
     45         0          0     
     46         0          0     
     47         0          0     
     48         0          0     
     49         0          0     
     50         0          0     
     51         0          0     
     52         0          0     
     53         0          0     
     54         0          0     
     55         0          0     
     56         0          0     
     57         0          0     
     58         0          0     
     59         0          0     
     60         0          0     
     61         0          0     
     62         0          0     
     63         0          0     
     64         0          0     
     65         0          0     
     66         0          0     
     67         0          0     
     68         0          0     
     69         0          0     
IOCC 1 
Check MOSpaces before shift 21 22 21 22 
Check nactive_a/b 2 2 
Check nel_active_a/b 1 1 
Check MOSpaces after shift 22 21 22 21 
Check MOSpaces are unchanged 22 21 22 21 
Check nel_active_a/b 1 1 
NElCI_a/b 16 16 
NInternal_a/b 17 17 
NVirtual_a/b 49 49 


------------------------------------------------------------------------------- 
                              ORCA-MATRIX DRIVEN CI                            
------------------------------------------------------------------------------- 


This is a MRCC run
List of references:
22222222222222222222202
22222222222222222222220



Wavefunction type
-----------------
Correlation treatment                      ...      CCSD     
Single excitations                         ... ON
Orbital optimization                       ... OFF
Calculation of Z vector                    ... OFF
Calculation of Brueckner orbitals          ... OFF
Perturbative triple excitations            ... OFF
Calculation of F12 correction              ... OFF
Frozen core treatment                      ... chemical core (12 el)
Reference Wavefunction                     ... UHF
  Alpha-MOs occ    :     6 ...   22 ( 17 MO's/ 16 electrons)
  Beta-MOs occ     :     6 ...   22 ( 17 MO's/ 16 electrons)
  Alpha-MOs virt   :    21 ...   69 ( 49 MO's              )
  Beta-MOs virt    :    21 ...   69 ( 49 MO's              )
  Quasi restricted orbitals will be used (this is similar to a ROHF determinant)
Excitation classes included: IJAB ITAB TUAB IJTA ITUA ITAU TUVA IJTU ITUV TUVW IT IA TA TU o 
Number of AO's                             ...     70
Number of electrons                        ...     44
Number of correlated electrons             ...     32

Algorithmic settings
--------------------
Integral transformation                    ... All integrals via the RI transformation
RHF integral transformation will be used
K(C) Formation                             ... RI-PNO
   PNO-Integral Storage                    ... ON DISK
   PNO occupation number cut-off           ... 4.642e-09
   PNO Mulliken prescreening cut-off       ... 1.000e-03
   PNO sigma option                        ...    2
   PNO construction option                 ...    2
   PNO Normalization                       ...    0
Maximum number of iterations               ...        50
Convergence tolerance (max. residuum)      ... 1.000e-07
Level shift for amplitude update           ... 2.000e-01
Maximum number of DIIS vectors             ...         7
DIIS turned on at iteration                ...         0
Damping before turning on DIIS             ...     0.500
Damping after turning on DIIS              ...     0.000
Pair specific amplitude update             ... OFF
Natural orbital iterations                 ... OFF
Perturbative natural orbital generation    ... OFF
Printlevel                                 ... 2

Memory handling:
----------------
Maximum memory for working arrays          ...   3000 MB
Data storage in matrix containers          ... UNCOMPRESSED
Data type for integral storage             ... DOUBLE
In-Core Storage of quantities:
   Amplitudes+Sigma Vector      ... NO
   J+K operators                ... NO
   DIIS vectors                 ... NO
   3-external integrals         ... NO
   4-external integrals         ... NO

Localization treatment:
-----------------------
Localization option                        ...    2
Neglect threshold for strong pairs         ... 1.000e-04 Eh

Initializing the integral package          ... done
Localizing the QROs
MR branch
------------------------------------------------------------------------------
                           ORCA ORBITAL LOCALIZATION
------------------------------------------------------------------------------

Input orbitals are from                  ... job.qro
Output orbitals are to                   ... job.loc
Max. number of iterations                ... 128
Localizations seeded randomly            ... on
Convergence tolerance                    ... 1.000e-06
Treshold for strong local MOs            ... 9.500e-01
Treshold for bond MOs                    ... 8.500e-01
Operator                                 ... 0
Orbital range for localization           ... 6 to 20
Localization criterion                   ... FOSTER-BOYS
Doing the dipole integrals     ... o.k.
Entering Jacobi type localization:
Using Cholesky decomposition as initial guess.
Initial value of the localization sum :   184.063695
ITERATION   0 : L=  214.7424241928 DL=  3.07e+01 (MAX-T)=  44.974 
ITERATION   1 : L=  214.9057988623 DL=  1.63e-01 (MAX-T)=   6.588 
ITERATION   2 : L=  214.9064405186 DL=  6.42e-04 (MAX-T)=   0.664 
ITERATION   3 : L=  214.9066484732 DL=  2.08e-04 (MAX-T)=   0.445 
ITERATION   4 : L=  214.9067171112 DL=  6.86e-05 (MAX-T)=   0.270 
ITERATION   5 : L=  214.9067347540 DL=  1.76e-05 (MAX-T)=   0.131 
ITERATION   6 : L=  214.9067372121 DL=  2.46e-06 (MAX-T)=   0.063 
ITERATION   7 : L=  214.9067389179 DL=  1.71e-06 (MAX-T)=   0.046 
ITERATION   8 : L=  214.9067391555 DL=  2.38e-07 (MAX-T)=   0.020 
LOCALIZATION SUM CONVERGED


------------------------------------------------------------------------------- 
                    LOCALIZED MOLECULAR ORBITAL COMPOSITIONS                   
------------------------------------------------------------------------------- 

The Mulliken populations for each LMO on each atom are computed
The LMO`s will be ordered according to atom index and type
  (A) Strongly localized MO`s have populations of >=0.950 on one atom
  (B) Two center bond orbitals have populations of >=0.850 on two atoms
  (C) Other MO`s are considered to be `delocalized`

FOUND  -   0 strongly local MO`s
       -  13 two center bond MO`s
       -   2 significantly delocalized MO`s

Bond-like localized orbitals:
MO  18:  13H  -   0.427257  and   5C  -   0.602653
MO  17:  12H  -   0.427253  and   4C  -   0.602641
MO  16:  11H  -   0.427257  and   3C  -   0.602654
MO  15:  10H  -   0.427253  and   2C  -   0.602642
MO  14:   9H  -   0.424861  and   5C  -   0.599281
MO  13:   8H  -   0.424832  and   4C  -   0.599279
MO  12:   7H  -   0.424860  and   3C  -   0.599284
MO  11:   6H  -   0.424831  and   2C  -   0.599282
MO  10:   5C  -   0.505722  and   1C  -   0.530331
MO   9:   4C  -   0.505115  and   1C  -   0.530466
MO   8:   3C  -   0.505744  and   0C  -   0.530339
MO   7:   2C  -   0.505140  and   0C  -   0.530475
MO   6:   1C  -   0.522993  and   0C  -   0.522995
More delocalized orbitals:
MO  20:  1C - 0.495 4C - 0.255 5C - 0.254
MO  19:  0C - 0.495 2C - 0.255 3C - 0.254
Localized MO's were stored in: job.loc
Re-Reading QRO orbitals for the actual calculation
  ... duplicating orbitals and energies 
  ... adjusting occupation numbers
Warning: internal orbitals are localized - no re-canonicalization of internal orbitals
DLPNO should not come hereForming Den for Fock, now read IOCCA/B 
IOCCA/B read 
ia= 6..22  ib=6..22
alpha fineshed, now beta 
Forming densities  - ended successfully 
Forming Den for Fock, now read IOCCA/B 
IOCCA/B read 
ia= 6..22  ib=6..22
alpha fineshed, now beta 
Forming densities  - ended successfully 
I should not be her for DLPNO0th term: 207.282731 
1st term: -77.943786 
2nd term: -360.838618 
3rd term: -77.943786 
4th term: -360.838618 
Alpha density matrix                  0          1          2          3          4          5    
      0       1.031090  -0.054085   0.000000   0.001559   0.000000  -0.079380
      1      -0.054085   0.162796   0.000000  -0.002419   0.000000   0.122619
      2       0.000000   0.000000   0.142036   0.000000  -0.000710   0.000000
      3       0.001559  -0.002419   0.000000   0.200137   0.000000  -0.001893
      4       0.000000   0.000000  -0.000710   0.000000   0.211050  -0.000000
      5      -0.079380   0.122619   0.000000  -0.001893  -0.000000   0.102152
      6       0.000000  -0.000000   0.107714   0.000000  -0.000715   0.000000
      7      -0.002603   0.003414  -0.000000   0.080402   0.000000   0.002026
      8      -0.000000   0.000000   0.001038  -0.000000   0.072644   0.000000
      9       0.006529  -0.014380  -0.000000  -0.034076   0.000000   0.003258
     10      -0.014380   0.027595   0.000000   0.070043  -0.000000   0.004194
     11       0.000000   0.000000   0.018324   0.000000  -0.000007  -0.000000
     12       0.034076  -0.070043  -0.000000  -0.156129  -0.000000  -0.062148
     13      -0.000000  -0.000000   0.000007  -0.000000   0.000043   0.000000
     14       0.003258   0.004194  -0.000000   0.062148   0.000000  -0.009205
     15       0.000000   0.000000  -0.003252   0.000000   0.000089  -0.000000
     16       0.008772  -0.025070  -0.000000  -0.075359  -0.000000  -0.021185
     17       0.000000   0.000000   0.000182   0.000000  -0.003267  -0.000000
     18       0.008622  -0.018681  -0.000067   0.018563  -0.034411   0.001189
     19      -0.018815   0.035864   0.000149  -0.038675   0.071493   0.009019
     20       0.000135  -0.000416   0.097501  -0.000391   0.000247  -0.000025
     21      -0.019375   0.040054   0.001412  -0.028224   0.070100   0.036390
     22       0.033340  -0.068135   0.002055   0.071079  -0.117512  -0.061905
     23      -0.000295   0.010167  -0.000579  -0.024107   0.050087  -0.010475
     24       0.000279  -0.000765   0.075273  -0.000652  -0.000114  -0.000384
     25      -0.002266   0.007811   0.000988  -0.019012   0.020596   0.008143
     26       0.004855  -0.013481   0.002103   0.020335  -0.041332  -0.013471
     27       0.008622  -0.018681   0.000067   0.018563   0.034411   0.001189
     28      -0.018815   0.035864  -0.000149  -0.038675  -0.071493   0.009019
     29      -0.000135   0.000416   0.097501   0.000391   0.000247   0.000025
     30      -0.019375   0.040054  -0.001412  -0.028224  -0.070100   0.036390
     31      -0.033340   0.068135   0.002055  -0.071079  -0.117512   0.061905
     32      -0.000295   0.010167   0.000579  -0.024107  -0.050087  -0.010475
     33      -0.000279   0.000765   0.075273   0.000652  -0.000114   0.000384
     34      -0.002266   0.007811  -0.000988  -0.019012  -0.020596   0.008143
     35      -0.004855   0.013481   0.002103  -0.020335  -0.041332   0.013471
     36      -0.001857   0.003958   0.000112   0.007235   0.002702   0.004937
     37       0.004027  -0.008849  -0.000097  -0.016279  -0.007417  -0.013067
     38      -0.000088   0.000294  -0.005845  -0.000111   0.000104   0.000063
     39      -0.005685   0.012792   0.000276   0.019004   0.006900   0.016471
     40      -0.003827   0.007805  -0.000274   0.017764   0.006087   0.014846
     41       0.002724  -0.005948  -0.001365  -0.016339  -0.010731  -0.007756
     42      -0.000185   0.000521  -0.007776   0.000462   0.000170   0.000218
     43      -0.004534   0.010613   0.000412   0.019979   0.001013   0.010554
     44       0.000190  -0.001125  -0.000947   0.005203   0.005000   0.001349
     45      -0.001857   0.003958  -0.000112   0.007235  -0.002702   0.004937
     46       0.004027  -0.008849   0.000097  -0.016279   0.007417  -0.013067
     47       0.000088  -0.000294  -0.005845   0.000111   0.000104  -0.000063
     48      -0.005685   0.012792  -0.000276   0.019004  -0.006900   0.016471
     49       0.003827  -0.007805  -0.000274  -0.017764   0.006087  -0.014846
     50       0.002724  -0.005948   0.001365  -0.016339   0.010731  -0.007756
     51       0.000185  -0.000521  -0.007776  -0.000462   0.000170  -0.000218
     52      -0.004534   0.010613  -0.000412   0.019979  -0.001013   0.010554
     53      -0.000190   0.001125  -0.000947  -0.005203   0.005000  -0.001349
     54       0.006021  -0.013361  -0.000330   0.015238  -0.014269  -0.021469
     55       0.007090  -0.014854  -0.000374   0.024262  -0.020543  -0.016963
     56       0.006021  -0.013361   0.000330   0.015238   0.014269  -0.021469
     57       0.007090  -0.014854   0.000374   0.024262   0.020543  -0.016963
     58      -0.003555   0.007829   0.000199   0.015287   0.002784   0.008403
     59      -0.003557   0.007684   0.000346   0.020141   0.006297   0.008593
     60      -0.003555   0.007829  -0.000199   0.015287  -0.002784   0.008403
     61      -0.003557   0.007684  -0.000346   0.020141  -0.006297   0.008593
     62       0.005373  -0.011848   0.000170   0.004324  -0.021695  -0.020065
     63       0.006742  -0.014540   0.000372   0.004471  -0.034624  -0.016742
     64       0.005373  -0.011848  -0.000170   0.004324   0.021695  -0.020065
     65       0.006742  -0.014540  -0.000372   0.004471   0.034624  -0.016742
     66       0.002844  -0.006427  -0.000266  -0.011273  -0.003897  -0.005324
     67       0.000719  -0.001509   0.001229  -0.010022  -0.000646  -0.000405
     68       0.002844  -0.006427   0.000266  -0.011273   0.003897  -0.005324
     69       0.000719  -0.001509  -0.001229  -0.010022   0.000646  -0.000405
                  6          7          8          9         10         11    
      0       0.000000  -0.002603  -0.000000   0.006529  -0.014380   0.000000
      1      -0.000000   0.003414   0.000000  -0.014380   0.027595   0.000000
      2       0.107714  -0.000000   0.001038  -0.000000   0.000000   0.018324
      3       0.000000   0.080402  -0.000000  -0.034076   0.070043   0.000000
      4      -0.000715   0.000000   0.072644   0.000000  -0.000000  -0.000007
      5       0.000000   0.002026   0.000000   0.003258   0.004194  -0.000000
      6       0.083797  -0.000000   0.000595  -0.000000   0.000000  -0.003252
      7      -0.000000   0.043263  -0.000000  -0.008772   0.025070  -0.000000
      8       0.000595  -0.000000   0.032360   0.000000  -0.000000  -0.000182
      9      -0.000000  -0.008772   0.000000   1.031090  -0.054085  -0.000000
     10       0.000000   0.025070  -0.000000  -0.054085   0.162796   0.000000
     11      -0.003252  -0.000000  -0.000182  -0.000000   0.000000   0.142036
     12      -0.000000  -0.075359  -0.000000  -0.001559   0.002419  -0.000000
     13      -0.000089   0.000000  -0.003267   0.000000  -0.000000   0.000710
     14      -0.000000   0.021185  -0.000000  -0.079380   0.122619   0.000000
     15      -0.015742  -0.000000  -0.000329  -0.000000   0.000000   0.107714
     16      -0.000000  -0.031129  -0.000000   0.002603  -0.003414  -0.000000
     17       0.000329   0.000000  -0.006033  -0.000000   0.000000  -0.001038
     18      -0.000094   0.005374  -0.006419  -0.001857   0.003958  -0.000112
     19       0.000186  -0.012962   0.018040   0.004027  -0.008849   0.000097
     20       0.076187   0.000067   0.001571   0.000088  -0.000294  -0.005845
     21       0.001507  -0.038367   0.007167   0.005685  -0.012792   0.000276
     22       0.002103   0.015557  -0.057369  -0.003827   0.007805   0.000274
     23      -0.000476  -0.006519   0.008435   0.002724  -0.005948   0.001365
     24       0.059226  -0.000477   0.000892   0.000185  -0.000521  -0.007776
     25       0.000996  -0.023028  -0.003317   0.004534  -0.010613   0.000412
     26       0.001745  -0.000436  -0.021700   0.000190  -0.001125   0.000947
     27       0.000094   0.005374   0.006419  -0.001857   0.003958   0.000112
     28      -0.000186  -0.012962  -0.018040   0.004027  -0.008849  -0.000097
     29       0.076187  -0.000067   0.001571  -0.000088   0.000294  -0.005845
     30      -0.001507  -0.038367  -0.007167   0.005685  -0.012792  -0.000276
     31       0.002103  -0.015557  -0.057369   0.003827  -0.007805   0.000274
     32       0.000476  -0.006519  -0.008435   0.002724  -0.005948  -0.001365
     33       0.059226   0.000477   0.000892  -0.000185   0.000521  -0.007776
     34      -0.000996  -0.023028   0.003317   0.004534  -0.010613  -0.000412
     35       0.001745   0.000436  -0.021700  -0.000190   0.001125   0.000947
     36       0.000073   0.001130   0.003569   0.008622  -0.018681   0.000067
     37      -0.000048  -0.003704  -0.006622  -0.018815   0.035864  -0.000149
     38      -0.016498   0.000701   0.000022  -0.000135   0.000416   0.097501
     39       0.000094   0.004444  -0.007206   0.019375  -0.040054   0.001412
     40       0.000005   0.019685   0.009023   0.033340  -0.068135  -0.002055
     41      -0.001168  -0.002984  -0.004912  -0.000295   0.010167   0.000579
     42      -0.015264   0.000940  -0.000070  -0.000279   0.000765   0.075273
     43       0.000231   0.005713  -0.005336   0.002266  -0.007811   0.000988
     44      -0.000499   0.008767   0.004896   0.004855  -0.013481  -0.002103
     45      -0.000073   0.001130  -0.003569   0.008622  -0.018681  -0.000067
     46       0.000048  -0.003704   0.006622  -0.018815   0.035864   0.000149
     47      -0.016498  -0.000701   0.000022   0.000135  -0.000416   0.097501
     48      -0.000094   0.004444   0.007206   0.019375  -0.040054  -0.001412
     49       0.000005  -0.019685   0.009023  -0.033340   0.068135  -0.002055
     50       0.001168  -0.002984   0.004912  -0.000295   0.010167  -0.000579
     51      -0.015264  -0.000940  -0.000070   0.000279  -0.000765   0.075273
     52      -0.000231   0.005713   0.005336   0.002266  -0.007811  -0.000988
     53      -0.000499  -0.008767   0.004896  -0.004855   0.013481  -0.002103
     54      -0.000485   0.024625   0.003370  -0.003555   0.007829  -0.000199
     55      -0.000429   0.022457  -0.000546  -0.003557   0.007684  -0.000346
     56       0.000485   0.024625  -0.003370  -0.003555   0.007829   0.000199
     57       0.000429   0.022457   0.000546  -0.003557   0.007684   0.000346
     58       0.000156   0.006005  -0.007027   0.006021  -0.013361   0.000330
     59       0.000262   0.008213  -0.003259   0.007090  -0.014854   0.000374
     60      -0.000156   0.006005   0.007027   0.006021  -0.013361  -0.000330
     61      -0.000262   0.008213   0.003259   0.007090  -0.014854  -0.000374
     62       0.000597  -0.012807  -0.025133   0.002844  -0.006427   0.000266
     63       0.000808  -0.007814  -0.024391   0.000719  -0.001509  -0.001229
     64      -0.000597  -0.012807   0.025133   0.002844  -0.006427  -0.000266
     65      -0.000808  -0.007814   0.024391   0.000719  -0.001509   0.001229
     66      -0.000193   0.002972   0.003387   0.005373  -0.011848  -0.000170
     67       0.000974  -0.000072   0.004634   0.006742  -0.014540  -0.000372
     68       0.000193   0.002972  -0.003387   0.005373  -0.011848   0.000170
     69      -0.000974  -0.000072  -0.004634   0.006742  -0.014540   0.000372
                 12         13         14         15         16         17    
      0       0.034076  -0.000000   0.003258   0.000000   0.008772   0.000000
      1      -0.070043  -0.000000   0.004194   0.000000  -0.025070   0.000000
      2      -0.000000   0.000007  -0.000000  -0.003252  -0.000000   0.000182
      3      -0.156129  -0.000000   0.062148   0.000000  -0.075359   0.000000
      4      -0.000000   0.000043   0.000000   0.000089  -0.000000  -0.003267
      5      -0.062148   0.000000  -0.009205  -0.000000  -0.021185  -0.000000
      6      -0.000000  -0.000089  -0.000000  -0.015742  -0.000000   0.000329
      7      -0.075359   0.000000   0.021185  -0.000000  -0.031129   0.000000
      8      -0.000000  -0.003267  -0.000000  -0.000329  -0.000000  -0.006033
      9      -0.001559   0.000000  -0.079380  -0.000000   0.002603  -0.000000
     10       0.002419  -0.000000   0.122619   0.000000  -0.003414   0.000000
     11      -0.000000   0.000710   0.000000   0.107714  -0.000000  -0.001038
     12       0.200137  -0.000000   0.001893  -0.000000   0.080402  -0.000000
     13      -0.000000   0.211050   0.000000   0.000715   0.000000   0.072644
     14       0.001893   0.000000   0.102152   0.000000  -0.002026   0.000000
     15      -0.000000   0.000715   0.000000   0.083797  -0.000000  -0.000595
     16       0.080402   0.000000  -0.002026  -0.000000   0.043263   0.000000
     17      -0.000000   0.072644   0.000000  -0.000595   0.000000   0.032360
     18      -0.007235   0.002702   0.004937  -0.000073  -0.001130   0.003569
     19       0.016279  -0.007417  -0.013067   0.000048   0.003704  -0.006622
     20      -0.000111  -0.000104  -0.000063  -0.016498   0.000701  -0.000022
     21       0.019004  -0.006900  -0.016471   0.000094   0.004444   0.007206
     22      -0.017764   0.006087   0.014846  -0.000005  -0.019685   0.009023
     23       0.016339  -0.010731  -0.007756   0.001168   0.002984  -0.004912
     24       0.000462  -0.000170  -0.000218  -0.015264   0.000940   0.000070
     25       0.019979  -0.001013  -0.010554   0.000231   0.005713   0.005336
     26      -0.005203   0.005000   0.001349   0.000499  -0.008767   0.004896
     27      -0.007235  -0.002702   0.004937   0.000073  -0.001130  -0.003569
     28       0.016279   0.007417  -0.013067  -0.000048   0.003704   0.006622
     29       0.000111  -0.000104   0.000063  -0.016498  -0.000701  -0.000022
     30       0.019004   0.006900  -0.016471  -0.000094   0.004444  -0.007206
     31       0.017764   0.006087  -0.014846  -0.000005   0.019685   0.009023
     32       0.016339   0.010731  -0.007756  -0.001168   0.002984   0.004912
     33      -0.000462  -0.000170   0.000218  -0.015264  -0.000940   0.000070
     34       0.019979   0.001013  -0.010554  -0.000231   0.005713  -0.005336
     35       0.005203   0.005000  -0.001349   0.000499   0.008767   0.004896
     36      -0.018563  -0.034411   0.001189   0.000094  -0.005374  -0.006419
     37       0.038675   0.071493   0.009019  -0.000186   0.012962   0.018040
     38      -0.000391  -0.000247   0.000025   0.076187   0.000067  -0.001571
     39      -0.028224  -0.070100  -0.036390   0.001507  -0.038367  -0.007167
     40      -0.071079  -0.117512  -0.061905  -0.002103  -0.015557  -0.057369
     41       0.024107   0.050087  -0.010475   0.000476   0.006519   0.008435
     42      -0.000652   0.000114   0.000384   0.059226  -0.000477  -0.000892
     43      -0.019012  -0.020596  -0.008143   0.000996  -0.023028   0.003317
     44      -0.020335  -0.041332  -0.013471  -0.001745   0.000436  -0.021700
     45      -0.018563   0.034411   0.001189  -0.000094  -0.005374   0.006419
     46       0.038675  -0.071493   0.009019   0.000186   0.012962  -0.018040
     47       0.000391  -0.000247  -0.000025   0.076187  -0.000067  -0.001571
     48      -0.028224   0.070100  -0.036390  -0.001507  -0.038367   0.007167
     49       0.071079  -0.117512   0.061905  -0.002103   0.015557  -0.057369
     50       0.024107  -0.050087  -0.010475  -0.000476   0.006519  -0.008435
     51       0.000652   0.000114  -0.000384   0.059226   0.000477  -0.000892
     52      -0.019012   0.020596  -0.008143  -0.000996  -0.023028  -0.003317
     53       0.020335  -0.041332   0.013471  -0.001745  -0.000436  -0.021700
     54      -0.015287   0.002784   0.008403  -0.000156  -0.006005  -0.007027
     55      -0.020141   0.006297   0.008593  -0.000262  -0.008213  -0.003259
     56      -0.015287  -0.002784   0.008403   0.000156  -0.006005   0.007027
     57      -0.020141  -0.006297   0.008593   0.000262  -0.008213   0.003259
     58      -0.015238  -0.014269  -0.021469   0.000485  -0.024625   0.003370
     59      -0.024262  -0.020543  -0.016963   0.000429  -0.022457  -0.000546
     60      -0.015238   0.014269  -0.021469  -0.000485  -0.024625  -0.003370
     61      -0.024262   0.020543  -0.016963  -0.000429  -0.022457   0.000546
     62       0.011273  -0.003897  -0.005324   0.000193  -0.002972   0.003387
     63       0.010022  -0.000646  -0.000405  -0.000974   0.000072   0.004634
     64       0.011273   0.003897  -0.005324  -0.000193  -0.002972  -0.003387
     65       0.010022   0.000646  -0.000405   0.000974   0.000072  -0.004634
     66      -0.004324  -0.021695  -0.020065  -0.000597   0.012807  -0.025133
     67      -0.004471  -0.034624  -0.016742  -0.000808   0.007814  -0.024391
     68      -0.004324   0.021695  -0.020065   0.000597   0.012807   0.025133
     69      -0.004471   0.034624  -0.016742   0.000808   0.007814   0.024391
                 18         19         20         21         22         23    
      0       0.008622  -0.018815   0.000135  -0.019375   0.033340  -0.000295
      1      -0.018681   0.035864  -0.000416   0.040054  -0.068135   0.010167
      2      -0.000067   0.000149   0.097501   0.001412   0.002055  -0.000579
      3       0.018563  -0.038675  -0.000391  -0.028224   0.071079  -0.024107
      4      -0.034411   0.071493   0.000247   0.070100  -0.117512   0.050087
      5       0.001189   0.009019  -0.000025   0.036390  -0.061905  -0.010475
      6      -0.000094   0.000186   0.076187   0.001507   0.002103  -0.000476
      7       0.005374  -0.012962   0.000067  -0.038367   0.015557  -0.006519
      8      -0.006419   0.018040   0.001571   0.007167  -0.057369   0.008435
      9      -0.001857   0.004027   0.000088   0.005685  -0.003827   0.002724
     10       0.003958  -0.008849  -0.000294  -0.012792   0.007805  -0.005948
     11      -0.000112   0.000097  -0.005845   0.000276   0.000274   0.001365
     12      -0.007235   0.016279  -0.000111   0.019004  -0.017764   0.016339
     13       0.002702  -0.007417  -0.000104  -0.006900   0.006087  -0.010731
     14       0.004937  -0.013067  -0.000063  -0.016471   0.014846  -0.007756
     15      -0.000073   0.000048  -0.016498   0.000094  -0.000005   0.001168
     16      -0.001130   0.003704   0.000701   0.004444  -0.019685   0.002984
     17       0.003569  -0.006622  -0.000022   0.007206   0.009023  -0.004912
     18       1.031642  -0.054505   0.000040  -0.000229   0.000067  -0.082198
     19      -0.054505   0.158473  -0.000041   0.002436  -0.003740   0.135047
     20       0.000040  -0.000041   0.143384  -0.001147  -0.001047  -0.000304
     21      -0.000229   0.002436  -0.001147   0.200394  -0.000836  -0.008343
     22       0.000067  -0.003740  -0.001047  -0.000836   0.203512   0.022714
     23      -0.082198   0.135047  -0.000304  -0.008343   0.022714   0.122638
     24      -0.000186   0.000578   0.143389   0.000669   0.000705   0.000635
     25       0.000366  -0.002112   0.000169   0.102199   0.018771  -0.004105
     26      -0.002772   0.006477   0.001042   0.017326   0.076350   0.013077
     27      -0.002206   0.004667  -0.000027  -0.000292  -0.007474   0.004915
     28       0.004667  -0.010762   0.000007   0.001940   0.017290  -0.010628
     29       0.000027  -0.000007  -0.004562   0.000241   0.000178  -0.001544
     30      -0.000292   0.001940  -0.000241  -0.006055   0.003959  -0.010506
     31       0.007474  -0.017290   0.000178  -0.003959   0.023939  -0.015871
     32       0.004915  -0.010628   0.001544  -0.010506   0.015871  -0.008943
     33       0.000202  -0.000444  -0.035396  -0.000222   0.000175  -0.001798
     34      -0.002756   0.005848   0.000692  -0.001514  -0.003401  -0.001155
     35       0.003994  -0.008322   0.000100  -0.012474   0.012919  -0.005016
     36      -0.001328   0.003146  -0.000319   0.004448   0.001606   0.001201
     37       0.003146  -0.008332   0.000817  -0.010563  -0.003462  -0.002968
     38       0.000319  -0.000817  -0.090861  -0.001651  -0.001458  -0.000473
     39      -0.004448   0.010563  -0.001651   0.013972   0.005062   0.017765
     40       0.001606  -0.003462   0.001458  -0.005062  -0.016102  -0.005078
     41       0.001201  -0.002968   0.000473  -0.017765  -0.005078   0.000316
     42       0.000393  -0.000858  -0.104745  -0.001931  -0.001376  -0.000741
     43      -0.000801   0.000725  -0.001647   0.007321   0.006109   0.005261
     44       0.003193  -0.005847   0.001347  -0.007551  -0.012334  -0.005723
     45       0.000673  -0.001906  -0.000356  -0.002262   0.002912  -0.000828
     46      -0.001906   0.004401   0.000690   0.004949  -0.007286   0.003931
     47      -0.000356   0.000690   0.056946   0.001110   0.000604   0.001990
     48       0.002262  -0.004949  -0.001110  -0.005528   0.007023  -0.015882
     49      -0.002912   0.007286  -0.000604   0.007023  -0.011404   0.004678
     50      -0.000828   0.003931   0.001990   0.015882  -0.004678   0.003357
     51      -0.000464   0.000916   0.073963   0.001523   0.000690   0.002209
[...]
DR 0.000009, Cmu -0.790202, scaled DR 0.000007
 STol 0.000000Converged_iter in iteration 9, iref 0 is false
Convergence after iteration 9 iref 1 - max residual  0.0000119259,
          Heff diag change  0.0000043465
  -232.115588875     -0.597489983      0.000004346      0.000011926    0.00      0.059760522
DR 0.000012, Cmu 0.612847, scaled DR 0.000007
 STol 0.000000Converged_iter in iteration 9, iref 1 is false
TA=TB
Now singles
TA=TB
Now singles
Iteration  10 
Tia_a_start 0, Tia_a_stop 17
                   0          1    
      0     -232.163801   0.093062
      1       0.093370 -232.115589
Before zero_invalid, iref 0 
                   0          1    
      0     -232.163801   0.093062
      1       0.093370 -232.115589
Tia_a_start 0, Tia_a_stop 17
                   0          1    
      0     -232.163801   0.093064
      1       0.093370 -232.115588
Before zero_invalid, iref 1 
                   0          1    
      0     -232.163801   0.093064
      1       0.093370 -232.115588


-------------------------------------------------------------

Effective Hamiltonian and derived quantitiesin iteration 10

-------------------------------------------------------------

--------   Heff matrix  -------------------------------------

                       0                   1         
      0          -232.163801482         0.093063629
      1             0.093369536      -232.115588369


--------   Heff Right Eigenvectors  -------------------------

                   0          1    
      0      -0.790200  -0.611593
      1       0.612849  -0.791173


--------   Eigenvalues - real parts  ------------------------

	  0     -232.235978
	  1     -232.043412

Search for bwroot by ovelap of HeffEVecR with selected trial vector
    iref 0  Overlap   0.964399
    iref 1  Overlap   -0.265983

---------------Selected bwroot    0 ---------------------------


------------------Epsilon0    -232.23597801816589 -------------------


fact in coupling -0.072177
fact in coupling -0.120390
Convergence after iteration 10 iref 0 - max residual  0.0000053925,
          Heff diag change  0.0000013027
  -232.163801482     -0.594957105      0.000001303      0.000005392   34.79      0.062576841
DR 0.000005, Cmu -0.790200, scaled DR 0.000004
 STol 0.000000Converged_iter in iteration 10, iref 0 is false
Convergence after iteration 10 iref 1 - max residual  0.0000074623,
          Heff diag change  0.0000005062
  -232.115588369     -0.597489476      0.000000506      0.000007462    0.00      0.059756649
DR 0.000007, Cmu 0.612849, scaled DR 0.000005
 STol 0.000000Converged_iter in iteration 10, iref 1 is false
TA=TB
Now singles
TA=TB
Now singles
Iteration  11 
Tia_a_start 0, Tia_a_stop 17
                   0          1    
      0     -232.163801   0.093064
      1       0.093370 -232.115588
Before zero_invalid, iref 0 
                   0          1    
      0     -232.163801   0.093064
      1       0.093370 -232.115588
Tia_a_start 0, Tia_a_stop 17
                   0          1    
      0     -232.163801   0.093064
      1       0.093370 -232.115588
Before zero_invalid, iref 1 
                   0          1    
      0     -232.163801   0.093064
      1       0.093370 -232.115588


-------------------------------------------------------------

Effective Hamiltonian and derived quantitiesin iteration 11

-------------------------------------------------------------

--------   Heff matrix  -------------------------------------

                       0                   1         
      0          -232.163801156         0.093063619
      1             0.093369775      -232.115588442


--------   Heff Right Eigenvectors  -------------------------

                   0          1    
      0      -0.790199  -0.611593
      1       0.612850  -0.791173


--------   Eigenvalues - real parts  ------------------------

	  0     -232.235978
	  1     -232.043412

Search for bwroot by ovelap of HeffEVecR with selected trial vector
    iref 0  Overlap   0.964400
    iref 1  Overlap   -0.265982

---------------Selected bwroot    0 ---------------------------


------------------Epsilon0    -232.23597795276675 -------------------


fact in coupling -0.072177
fact in coupling -0.120390
Convergence after iteration 11 iref 0 - max residual  0.0000025888,
          Heff diag change  0.0000003260
  -232.163801156     -0.594956779      0.000000326      0.000002589   35.10      0.062574610
DR 0.000003, Cmu -0.790199, scaled DR 0.000002
 STol 0.000000Converged_iter in iteration 11, iref 0 is false
Convergence after iteration 11 iref 1 - max residual  0.0000030137,
          Heff diag change -0.0000000735
  -232.115588442     -0.597489550     -0.000000073      0.000003014    0.00      0.059753496
DR 0.000003, Cmu 0.612850, scaled DR 0.000002
 STol 0.000000Converged_iter in iteration 11, iref 1 is false
TA=TB
Now singles
TA=TB
Now singles
Iteration  12 
Tia_a_start 0, Tia_a_stop 17
                   0          1    
      0     -232.163801   0.093064
      1       0.093370 -232.115588
Before zero_invalid, iref 0 
                   0          1    
      0     -232.163801   0.093064
      1       0.093370 -232.115588
Tia_a_start 0, Tia_a_stop 17
                   0          1    
      0     -232.163801   0.093064
      1       0.093370 -232.115588
Before zero_invalid, iref 1 
                   0          1    
      0     -232.163801   0.093064
      1       0.093370 -232.115588


-------------------------------------------------------------

Effective Hamiltonian and derived quantitiesin iteration 12

-------------------------------------------------------------

--------   Heff matrix  -------------------------------------

                       0                   1         
      0          -232.163801365         0.093063588
      1             0.093369648      -232.115588305


--------   Heff Right Eigenvectors  -------------------------

                   0          1    
      0      -0.790200  -0.611592
      1       0.612849  -0.791173


--------   Eigenvalues - real parts  ------------------------

	  0     -232.235978
	  1     -232.043412

Search for bwroot by ovelap of HeffEVecR with selected trial vector
    iref 0  Overlap   0.964399
    iref 1  Overlap   -0.265983

---------------Selected bwroot    0 ---------------------------


------------------Epsilon0    -232.23597795544941 -------------------


fact in coupling -0.072177
fact in coupling -0.120390
Convergence after iteration 12 iref 0 - max residual  0.0000010767,
          Heff diag change -0.0000002088
  -232.163801365     -0.594956988     -0.000000209      0.000001077   34.58      0.062574073
DR 0.000001, Cmu -0.790200, scaled DR 0.000001
 STol 0.000000Converged_iter in iteration 12, iref 0 is false
Convergence after iteration 12 iref 1 - max residual  0.0000009318,
          Heff diag change  0.0000001376
  -232.115588305     -0.597489412      0.000000138      0.000000932    0.00      0.059753286
DR 0.000001, Cmu 0.612849, scaled DR 0.000001
 STol 0.000000Converged_iter in iteration 12, iref 1 is false
TA=TB
Now singles
TA=TB
Now singles
Iteration  13 
Tia_a_start 0, Tia_a_stop 17
                   0          1    
      0     -232.163802   0.093064
      1       0.093370 -232.115588
Before zero_invalid, iref 0 
                   0          1    
      0     -232.163802   0.093064
      1       0.093370 -232.115588
Tia_a_start 0, Tia_a_stop 17
                   0          1    
      0     -232.163802   0.093063
      1       0.093370 -232.115588
Before zero_invalid, iref 1 
                   0          1    
      0     -232.163802   0.093063
      1       0.093370 -232.115588


-------------------------------------------------------------

Effective Hamiltonian and derived quantitiesin iteration 13

-------------------------------------------------------------

--------   Heff matrix  -------------------------------------

                       0                   1         
      0          -232.163801575         0.093063476
      1             0.093369613      -232.115588481


--------   Heff Right Eigenvectors  -------------------------

                   0          1    
      0      -0.790200  -0.611592
      1       0.612849  -0.791173


--------   Eigenvalues - real parts  ------------------------

	  0     -232.235978
	  1     -232.043412

Search for bwroot by ovelap of HeffEVecR with selected trial vector
    iref 0  Overlap   0.964399
    iref 1  Overlap   -0.265983

---------------Selected bwroot    0 ---------------------------


------------------Epsilon0    -232.23597808106106 -------------------


fact in coupling -0.072177
fact in coupling -0.120390
Convergence after iteration 13 iref 0 - max residual  0.0000003344,
          Heff diag change -0.0000002104
  -232.163801575     -0.594957198     -0.000000210      0.000000334   34.65      0.062574412
DR 0.000000, Cmu -0.790200, scaled DR 0.000000
 STol 0.000000Converged_iter in iteration 13, iref 0 is false
Convergence after iteration 13 iref 1 - max residual  0.0000002069,
          Heff diag change -0.0000001757
  -232.115588481     -0.597489588     -0.000000176      0.000000207    0.00      0.059753776
DR 0.000000, Cmu 0.612849, scaled DR 0.000000
 STol 0.000000Converged_iter in iteration 13, iref 1 is false
TA=TB
Now singles
TA=TB
Now singles
Iteration  14 
Tia_a_start 0, Tia_a_stop 17
                   0          1    
      0     -232.163802   0.093063
      1       0.093370 -232.115588
Before zero_invalid, iref 0 
                   0          1    
      0     -232.163802   0.093063
      1       0.093370 -232.115588
Tia_a_start 0, Tia_a_stop 17
                   0          1    
      0     -232.163802   0.093063
      1       0.093370 -232.115589
Before zero_invalid, iref 1 
                   0          1    
      0     -232.163802   0.093063
      1       0.093370 -232.115589


-------------------------------------------------------------

Effective Hamiltonian and derived quantitiesin iteration 14

-------------------------------------------------------------

--------   Heff matrix  -------------------------------------

                       0                   1         
      0          -232.163801714         0.093063482
      1             0.093369620      -232.115588613


--------   Heff Right Eigenvectors  -------------------------

                   0          1    
      0      -0.790200  -0.611592
      1       0.612849  -0.791173


--------   Eigenvalues - real parts  ------------------------

	  0     -232.235978
	  1     -232.043412

Search for bwroot by ovelap of HeffEVecR with selected trial vector
    iref 0  Overlap   0.964399
    iref 1  Overlap   -0.265983

---------------Selected bwroot    0 ---------------------------


------------------Epsilon0    -232.23597822415127 -------------------


fact in coupling -0.072177
fact in coupling -0.120390
Convergence after iteration 14 iref 0 - max residual  0.0000000995,
          Heff diag change -0.0000001385
  -232.163801714     -0.594957337     -0.000000139      0.000000100   35.07      0.062574747
DR 0.000000, Cmu -0.790200, scaled DR 0.000000
 STol 0.000000Converged_iter in iteration 14, iref 0 is true
Convergence after iteration 14 iref 1 - max residual  0.0000000568,
          Heff diag change -0.0000001326
  -232.115588613     -0.597489721     -0.000000133      0.000000057    0.00      0.059754122
DR 0.000000, Cmu 0.612849, scaled DR 0.000000
 STol 0.000000Converged_iter in iteration 14, iref 1 is true
               --- The Coupled-Cluster iterations have converged ---

----------------------
COUPLED CLUSTER ENERGY
----------------------

-232.235978224
------------------
LARGEST AMPLITUDES
------------------
  20a-> 22a  21b-> 24b       0.066131
  21a-> 24a  20b-> 22b       0.066131
  19a-> 22a  21b-> 24b       0.066125
  21a-> 24a  19b-> 22b       0.066125
  20a-> 22a  20b-> 22b       0.052215
  19a-> 22a  19b-> 22b       0.052209
  19a-> 24a  19b-> 24b       0.049379
  20a-> 24a  20b-> 24b       0.049357
  20a-> 23a  21b-> 22b       0.045083
  21a-> 22a  20b-> 23b       0.045083
  21a-> 22a  19b-> 23b       0.045078
  19a-> 23a  21b-> 22b       0.045078
  21a-> 24a  21b-> 24b       0.044210
  21a-> 23a  21b-> 23b       0.043621
  20a-> 23a  20b-> 24b       0.041678
  20a-> 24a  20b-> 23b       0.041678

------------------------------------------------------------------------------
                           ORCA POPULATION ANALYSIS
------------------------------------------------------------------------------
Input electron density              ... job.mdcip.tmp
Input spin density                  ... job.mdcir.tmp
BaseName (.gbw .S,...)              ... job
CleanEpsilon0 is -232.235978224151
 , ECORR is -0.673972723056


------------------------------------------------------------------------------- 
                                     TIMINGS                                   
------------------------------------------------------------------------------- 


Total execution time                   ...     1380.779 sec

Localization of occupied MO's          ...        0.608 sec (  0.0%)
Fock Matrix Formation                  ...       12.392 sec (  0.9%)
RI-PNO integral transformation         ...      319.049 sec ( 23.1%)
Initial Guess                          ...        3.291 sec (  0.2%)
DIIS Solver                            ...       14.146 sec (  1.0%)
State Vector Update                    ...        1.264 sec (  0.1%)
Sigma-vector construction              ...      496.133 sec ( 35.9%)
  <0|H|D>                              ...        0.092 sec (  0.0% of sigma)
  <0|H|S>                              ...        0.002 sec (  0.0% of sigma)
  <D|H|D>(0-ext)                       ...      141.491 sec ( 28.5% of sigma)
  <D|H|D>(2-ext Fock)                  ...        0.663 sec (  0.1% of sigma)
  <D|H|D>(2-ext)                       ...       89.881 sec ( 18.1% of sigma)
  <D|H|D>(4-ext)                       ...      329.633 sec ( 66.4% of sigma)
  CCSD doubles correction              ...       27.162 sec (  5.5% of sigma)
  <S|H|S>                              ...        0.069 sec (  0.0% of sigma)
  <S|H|D>(1-ext)                       ...        6.929 sec (  1.4% of sigma)
  <D|H|S>(1-ext)                       ...       31.842 sec (  6.4% of sigma)
  <S|H|D>(3-ext)                       ...       33.632 sec (  6.8% of sigma)
  Fock-dressing                        ...       18.703 sec (  3.8% of sigma)
  Singles Fock matrix                  ...      104.871 sec ( 21.1% of sigma)
  (ik|jl)-dressing                     ...      115.536 sec ( 23.3% of sigma)
  (ij|ab),(ia|jb)-dressing             ...       98.184 sec ( 19.8% of sigma)
  Pair energies                        ...        0.291 sec (  0.1% of sigma)

res from MDCI is 0
-------------------------   --------------------
FINAL SINGLE POINT ENERGY      -231.562005501096
-------------------------   --------------------

Storing actual gbw-file in job.010.gbw ... done

                            ***************************************
                            *     ORCA property calculations      *
                            ***************************************

                                    ---------------------
                                    Active property flags
                                    ---------------------
   (+) Dipole Moment


------------------------------------------------------------------------------
                       ORCA ELECTRIC PROPERTIES CALCULATION
------------------------------------------------------------------------------

Dipole Moment Calculation                       ... on
Quadrupole Moment Calculation                   ... off
Polarizability Calculation                      ... off
GBWName                                         ... job.gbw
Electron density file                           ... job.scfp.tmp

-------------
DIPOLE MOMENT
-------------
                                X             Y             Z
Electronic contribution:      0.00000      -0.00000      -0.00000
Nuclear contribution   :     -0.00000       0.00000      -0.00000
                        -----------------------------------------
Total Dipole Moment    :      0.00000      -0.00000      -0.00000
                        -----------------------------------------
Magnitude (a.u.)       :      0.00000
Magnitude (Debye)      :      0.00001


                           *** MDCI DENSITY ***

------------------------------------------------------------------------------
                       ORCA ELECTRIC PROPERTIES CALCULATION
------------------------------------------------------------------------------

Dipole Moment Calculation                       ... on
Quadrupole Moment Calculation                   ... off
Polarizability Calculation                      ... off
GBWName                                         ... job.gbw
Electron density file                           ... job.mdcip.tmp

-------------
DIPOLE MOMENT
-------------
                                X             Y             Z
Electronic contribution:     -0.00000      -0.00000      -0.00000
Nuclear contribution   :     -0.00000       0.00000      -0.00000
                        -----------------------------------------
Total Dipole Moment    :     -0.00000       0.00000      -0.00000
                        -----------------------------------------
Magnitude (a.u.)       :      0.00000
Magnitude (Debye)      :      0.00000

                              **** TRAJECTORY DONE ***

                         SUMMARY OF THE CALCULATED SURFACE

------------------
TRAJECTORY RESULTS
------------------

Column   1: TWIST
Column   2: C1C2
Column   3: C1C3

The Calculated Surface using the 'Actual Energy'
   0.00000000   1.49936242   1.39776153 -231.49967397
  10.00000000   1.49936242   1.39776153 -231.50458297
  20.00000000   1.49936242   1.39776153 -231.51498336
  30.00000000   1.49936242   1.39776153 -231.52746324
  40.00000000   1.49936242   1.39776153 -231.53917517
  50.00000000   1.49936242   1.39776153 -231.54862485
  60.00000000   1.49936242   1.39776153 -231.55538425
  70.00000000   1.49936242   1.39776153 -231.55961151
  80.00000000   1.49936242   1.39776153 -231.56169731
  90.00000000   1.49936242   1.39776153 -231.56200550

The Calculated Surface using the SCF energy
   0.00000000   1.49936242   1.39776153 -231.55343492
  10.00000000   1.49936242   1.39776153 -231.55372764
  20.00000000   1.49936242   1.39776153 -231.55253876
  30.00000000   1.49936242   1.39776153 -231.54836358
  40.00000000   1.49936242   1.39776153 -231.54126625
  50.00000000   1.49936242   1.39776153 -231.53258200
  60.00000000   1.49936242   1.39776153 -231.52400183
  70.00000000   1.49936242   1.39776153 -231.51697977
  80.00000000   1.49936242   1.39776153 -231.51256413
  90.00000000   1.49936242   1.39776153 -231.51135311

The Calculated Surface using the MDCI energy
   0.00000000   1.49936242   1.39776153 -231.49967397
  10.00000000   1.49936242   1.39776153 -231.50458297
  20.00000000   1.49936242   1.39776153 -231.51498336
  30.00000000   1.49936242   1.39776153 -231.52746324
  40.00000000   1.49936242   1.39776153 -231.53917517
  50.00000000   1.49936242   1.39776153 -231.54862485
  60.00000000   1.49936242   1.39776153 -231.55538425
  70.00000000   1.49936242   1.39776153 -231.55961151
  80.00000000   1.49936242   1.39776153 -231.56169731
  90.00000000   1.49936242   1.39776153 -231.56200550


Timings for individual modules:

Sum of individual times         ...    17086.214 sec (= 284.770 min)
GTO integral calculation        ...        7.352 sec (=   0.123 min)   0.0 %
SCF iterations                  ...      418.295 sec (=   6.972 min)   2.4 %
MDCI module                     ...    16660.567 sec (= 277.676 min)  97.5 %
                             ****ORCA TERMINATED NORMALLY****
TOTAL RUN TIME: 0 days 4 hours 44 minutes 54 seconds 181 msec
